<?xml version="1.0" encoding="UTF-8"?>

<!-- generated on 日 12/27 21:10:53 2020 by Eclipse SUMO GUI Version 1.7.0
<configuration xmlns:xsi="http://www.w3.org/2001/XMLSchema-instance" xsi:noNamespaceSchemaLocation="http://sumo.dlr.de/xsd/sumoConfiguration.xsd">

    <input>
        <net-file value="my_data/hello.net.xml"/>
        <route-files value="my_data/hello.rou.xml"/>
    </input>

    <output>
        <tripinfo-output value="tripinfo.xml"/>
    </output>

    <time>
        <begin value="0"/>
        <end value="10000"/>
        <step-length value="0.1"/>
    </time>

    <traci_server>
        <remote-port value="54389"/>
    </traci_server>

    <random_number>
        <random value="true"/>
    </random_number>

    <gui_only>
        <gui-settings-file value="my_data/hello.settings.xml"/>
        <tracker-interval value="0.1"/>
    </gui_only>

</configuration>
-->

<tripinfos xmlns:xsi="http://www.w3.org/2001/XMLSchema-instance" xsi:noNamespaceSchemaLocation="http://sumo.dlr.de/xsd/tripinfo_file.xsd">
    <tripinfo id="veh_4" depart="0.00" departLane="1to2_1" departPos="5.10" departSpeed="0.00" departDelay="0.00" arrival="36.90" arrivalLane="gneE9_0" arrivalPos="0.10" arrivalSpeed="15.25" duration="36.90" routeLength="504.21" waitingTime="0.00" waitingCount="0" stopTime="0.00" timeLoss="4.07" rerouteNo="0" devices="tripinfo_veh_4" vType="DEFAULT_VEHTYPE" speedFactor="1.11" vaporized=""/>
    <tripinfo id="veh_1" depart="0.00" departLane="1to2_0" departPos="5.10" departSpeed="0.00" departDelay="0.00" arrival="38.60" arrivalLane="gneE9_0" arrivalPos="0.10" arrivalSpeed="14.56" duration="38.60" routeLength="504.21" waitingTime="0.00" waitingCount="0" stopTime="0.00" timeLoss="4.10" rerouteNo="0" devices="tripinfo_veh_1" vType="DEFAULT_VEHTYPE" speedFactor="1.05" vaporized=""/>
    <tripinfo id="veh_0" depart="0.00" departLane="1to2_2" departPos="5.10" departSpeed="0.00" departDelay="0.00" arrival="39.10" arrivalLane="gneE8_0" arrivalPos="0.20" arrivalSpeed="14.27" duration="39.10" routeLength="505.41" waitingTime="0.00" waitingCount="0" stopTime="0.00" timeLoss="3.80" rerouteNo="0" devices="tripinfo_veh_0" vType="DEFAULT_VEHTYPE" speedFactor="1.03" vaporized=""/>
    <tripinfo id="veh_3" depart="0.00" departLane="1to2_3" departPos="5.10" departSpeed="0.00" departDelay="0.00" arrival="40.00" arrivalLane="gneE9_0" arrivalPos="0.10" arrivalSpeed="14.82" duration="40.00" routeLength="504.21" waitingTime="0.00" waitingCount="0" stopTime="0.00" timeLoss="6.18" rerouteNo="0" devices="tripinfo_veh_3" vType="DEFAULT_VEHTYPE" speedFactor="1.07" vaporized=""/>
    <tripinfo id="veh_9" depart="2.70" departLane="1to2_3" departPos="5.10" departSpeed="0.00" departDelay="2.70" arrival="40.00" arrivalLane="gneE7_0" arrivalPos="0.20" arrivalSpeed="15.30" duration="37.30" routeLength="506.78" waitingTime="0.00" waitingCount="0" stopTime="0.00" timeLoss="4.21" rerouteNo="0" devices="tripinfo_veh_9" vType="DEFAULT_VEHTYPE" speedFactor="1.10" vaporized=""/>
    <tripinfo id="veh_11" depart="5.30" departLane="1to2_2" departPos="5.10" departSpeed="0.00" departDelay="5.30" arrival="42.00" arrivalLane="gneE9_0" arrivalPos="0.10" arrivalSpeed="15.35" duration="36.70" routeLength="504.21" waitingTime="0.00" waitingCount="0" stopTime="0.00" timeLoss="4.08" rerouteNo="0" devices="tripinfo_veh_11" vType="DEFAULT_VEHTYPE" speedFactor="1.11" vaporized=""/>
    <tripinfo id="veh_7" depart="5.30" departLane="1to2_3" departPos="5.10" departSpeed="0.00" departDelay="5.30" arrival="43.20" arrivalLane="gneE7_0" arrivalPos="0.20" arrivalSpeed="15.07" duration="37.90" routeLength="506.78" waitingTime="0.00" waitingCount="0" stopTime="0.00" timeLoss="4.40" rerouteNo="0" devices="tripinfo_veh_7" vType="DEFAULT_VEHTYPE" speedFactor="1.09" vaporized=""/>
    <tripinfo id="veh_2" depart="2.70" departLane="1to2_0" departPos="5.10" departSpeed="0.00" departDelay="2.70" arrival="43.50" arrivalLane="out_0" arrivalPos="0.13" arrivalSpeed="13.68" duration="40.80" routeLength="504.91" waitingTime="0.00" waitingCount="0" stopTime="0.00" timeLoss="3.99" rerouteNo="0" devices="tripinfo_veh_2" vType="DEFAULT_VEHTYPE" speedFactor="0.99" vaporized=""/>
    <tripinfo id="veh_8" depart="5.30" departLane="1to2_1" departPos="5.10" departSpeed="0.00" departDelay="5.30" arrival="43.50" arrivalLane="gneE9_0" arrivalPos="0.10" arrivalSpeed="15.87" duration="38.20" routeLength="504.21" waitingTime="0.00" waitingCount="0" stopTime="0.00" timeLoss="6.52" rerouteNo="0" devices="tripinfo_veh_8" vType="DEFAULT_VEHTYPE" speedFactor="1.15" vaporized=""/>
    <tripinfo id="veh_5" depart="2.70" departLane="1to2_2" departPos="5.10" departSpeed="0.00" departDelay="2.70" arrival="45.50" arrivalLane="out_0" arrivalPos="0.13" arrivalSpeed="13.19" duration="42.80" routeLength="504.91" waitingTime="0.00" waitingCount="0" stopTime="0.00" timeLoss="4.72" rerouteNo="0" devices="tripinfo_veh_5" vType="DEFAULT_VEHTYPE" speedFactor="0.96" vaporized=""/>
    <tripinfo id="veh_6" depart="2.70" departLane="1to2_1" departPos="5.10" departSpeed="0.00" departDelay="2.70" arrival="45.80" arrivalLane="gneE9_0" arrivalPos="0.10" arrivalSpeed="14.74" duration="43.10" routeLength="504.21" waitingTime="0.00" waitingCount="0" stopTime="0.00" timeLoss="9.07" rerouteNo="0" devices="tripinfo_veh_6" vType="DEFAULT_VEHTYPE" speedFactor="1.07" vaporized=""/>
    <tripinfo id="veh_12" depart="5.30" departLane="1to2_0" departPos="5.10" departSpeed="0.00" departDelay="5.30" arrival="45.90" arrivalLane="gneE7_0" arrivalPos="0.20" arrivalSpeed="13.85" duration="40.60" routeLength="506.78" waitingTime="0.00" waitingCount="0" stopTime="0.00" timeLoss="4.32" rerouteNo="0" devices="tripinfo_veh_12" vType="DEFAULT_VEHTYPE" speedFactor="1.01" vaporized=""/>
    <tripinfo id="veh_10" depart="8.00" departLane="1to2_3" departPos="5.10" departSpeed="0.00" departDelay="8.00" arrival="46.20" arrivalLane="gneE8_0" arrivalPos="0.20" arrivalSpeed="14.67" duration="38.20" routeLength="505.41" waitingTime="0.00" waitingCount="0" stopTime="0.00" timeLoss="3.94" rerouteNo="0" devices="tripinfo_veh_10" vType="DEFAULT_VEHTYPE" speedFactor="1.06" vaporized=""/>
    <tripinfo id="veh_17" depart="8.00" departLane="1to2_2" departPos="5.10" departSpeed="0.00" departDelay="8.00" arrival="48.20" arrivalLane="out_0" arrivalPos="0.13" arrivalSpeed="13.95" duration="40.20" routeLength="504.91" waitingTime="0.00" waitingCount="0" stopTime="0.00" timeLoss="4.22" rerouteNo="0" devices="tripinfo_veh_17" vType="DEFAULT_VEHTYPE" speedFactor="1.01" vaporized=""/>
    <tripinfo id="veh_14" depart="10.70" departLane="1to2_0" departPos="5.10" departSpeed="0.00" departDelay="10.70" arrival="48.70" arrivalLane="gneE8_0" arrivalPos="0.20" arrivalSpeed="14.77" duration="38.00" routeLength="505.41" waitingTime="0.00" waitingCount="0" stopTime="0.00" timeLoss="4.03" rerouteNo="0" devices="tripinfo_veh_14" vType="DEFAULT_VEHTYPE" speedFactor="1.07" vaporized=""/>
    <tripinfo id="veh_15" depart="8.00" departLane="1to2_1" departPos="5.10" departSpeed="0.00" departDelay="8.00" arrival="50.60" arrivalLane="gneE7_0" arrivalPos="0.20" arrivalSpeed="12.89" duration="42.60" routeLength="506.78" waitingTime="0.00" waitingCount="0" stopTime="0.00" timeLoss="3.62" rerouteNo="0" devices="tripinfo_veh_15" vType="DEFAULT_VEHTYPE" speedFactor="0.94" vaporized=""/>
    <tripinfo id="veh_13" depart="8.00" departLane="1to2_0" departPos="5.10" departSpeed="0.00" departDelay="8.00" arrival="52.20" arrivalLane="gneE7_0" arrivalPos="0.20" arrivalSpeed="13.01" duration="44.20" routeLength="506.78" waitingTime="0.00" waitingCount="0" stopTime="0.00" timeLoss="5.32" rerouteNo="0" devices="tripinfo_veh_13" vType="DEFAULT_VEHTYPE" speedFactor="0.94" vaporized=""/>
    <tripinfo id="veh_25" depart="13.30" departLane="1to2_3" departPos="5.10" departSpeed="0.00" departDelay="13.30" arrival="52.90" arrivalLane="gneE8_0" arrivalPos="0.20" arrivalSpeed="14.23" duration="39.60" routeLength="505.41" waitingTime="0.00" waitingCount="0" stopTime="0.00" timeLoss="4.33" rerouteNo="0" devices="tripinfo_veh_25" vType="DEFAULT_VEHTYPE" speedFactor="1.03" vaporized=""/>
    <tripinfo id="veh_18" depart="10.60" departLane="1to2_1" departPos="5.10" departSpeed="0.00" departDelay="10.60" arrival="55.20" arrivalLane="out_0" arrivalPos="0.13" arrivalSpeed="13.47" duration="44.60" routeLength="504.91" waitingTime="0.00" waitingCount="0" stopTime="0.00" timeLoss="7.21" rerouteNo="0" devices="tripinfo_veh_18" vType="DEFAULT_VEHTYPE" speedFactor="0.97" vaporized=""/>
    <tripinfo id="veh_24" depart="10.70" departLane="1to2_3" departPos="5.10" departSpeed="0.00" departDelay="10.70" arrival="55.40" arrivalLane="gneE9_0" arrivalPos="0.10" arrivalSpeed="12.04" duration="44.70" routeLength="504.21" waitingTime="0.00" waitingCount="0" stopTime="0.00" timeLoss="3.07" rerouteNo="0" devices="tripinfo_veh_24" vType="DEFAULT_VEHTYPE" speedFactor="0.87" vaporized=""/>
    <tripinfo id="veh_22" depart="13.30" departLane="1to2_0" departPos="5.10" departSpeed="0.00" departDelay="13.30" arrival="55.70" arrivalLane="gneE8_0" arrivalPos="0.20" arrivalSpeed="13.10" duration="42.40" routeLength="505.41" waitingTime="0.00" waitingCount="0" stopTime="0.00" timeLoss="4.14" rerouteNo="0" devices="tripinfo_veh_22" vType="DEFAULT_VEHTYPE" speedFactor="0.95" vaporized=""/>
    <tripinfo id="veh_16" depart="13.40" departLane="1to2_2" departPos="5.10" departSpeed="0.00" departDelay="13.40" arrival="56.90" arrivalLane="gneE9_0" arrivalPos="0.10" arrivalSpeed="14.11" duration="43.50" routeLength="504.21" waitingTime="0.00" waitingCount="0" stopTime="0.00" timeLoss="7.95" rerouteNo="0" devices="tripinfo_veh_16" vType="DEFAULT_VEHTYPE" speedFactor="1.02" vaporized=""/>
    <tripinfo id="veh_21" depart="10.70" departLane="1to2_2" departPos="5.10" departSpeed="0.00" departDelay="10.70" arrival="57.10" arrivalLane="gneE8_0" arrivalPos="0.20" arrivalSpeed="15.56" duration="46.40" routeLength="505.41" waitingTime="0.00" waitingCount="0" stopTime="0.00" timeLoss="14.43" rerouteNo="0" devices="tripinfo_veh_21" vType="DEFAULT_VEHTYPE" speedFactor="1.14" vaporized=""/>
    <tripinfo id="veh_35" depart="15.90" departLane="1to2_0" departPos="5.10" departSpeed="0.00" departDelay="15.90" arrival="57.10" arrivalLane="gneE7_0" arrivalPos="0.20" arrivalSpeed="14.23" duration="41.20" routeLength="506.78" waitingTime="0.00" waitingCount="0" stopTime="0.00" timeLoss="5.64" rerouteNo="0" devices="tripinfo_veh_35" vType="DEFAULT_VEHTYPE" speedFactor="1.03" vaporized=""/>
    <tripinfo id="veh_27" depart="15.90" departLane="1to2_3" departPos="5.10" departSpeed="0.00" departDelay="15.90" arrival="58.40" arrivalLane="gneE9_0" arrivalPos="0.10" arrivalSpeed="14.19" duration="42.50" routeLength="504.21" waitingTime="0.00" waitingCount="0" stopTime="0.00" timeLoss="6.99" rerouteNo="0" devices="tripinfo_veh_27" vType="DEFAULT_VEHTYPE" speedFactor="1.02" vaporized=""/>
    <tripinfo id="veh_23" depart="16.00" departLane="1to2_2" departPos="5.10" departSpeed="0.00" departDelay="16.00" arrival="58.60" arrivalLane="gneE7_0" arrivalPos="0.20" arrivalSpeed="14.17" duration="42.60" routeLength="506.78" waitingTime="0.00" waitingCount="0" stopTime="0.00" timeLoss="6.97" rerouteNo="0" devices="tripinfo_veh_23" vType="DEFAULT_VEHTYPE" speedFactor="1.02" vaporized=""/>
    <tripinfo id="veh_19" depart="13.30" departLane="1to2_1" departPos="5.10" departSpeed="0.00" departDelay="13.30" arrival="59.80" arrivalLane="gneE9_0" arrivalPos="0.10" arrivalSpeed="13.94" duration="46.50" routeLength="504.21" waitingTime="0.00" waitingCount="0" stopTime="0.00" timeLoss="10.48" rerouteNo="0" devices="tripinfo_veh_19" vType="DEFAULT_VEHTYPE" speedFactor="1.01" vaporized=""/>
    <tripinfo id="veh_43" depart="21.20" departLane="1to2_3" departPos="5.10" departSpeed="0.00" departDelay="21.20" arrival="61.20" arrivalLane="gneE9_0" arrivalPos="0.10" arrivalSpeed="15.82" duration="40.00" routeLength="504.21" waitingTime="0.00" waitingCount="0" stopTime="0.00" timeLoss="8.32" rerouteNo="0" devices="tripinfo_veh_43" vType="DEFAULT_VEHTYPE" speedFactor="1.15" vaporized=""/>
    <tripinfo id="veh_20" depart="18.60" departLane="1to2_3" departPos="5.10" departSpeed="0.00" departDelay="18.60" arrival="62.80" arrivalLane="gneE9_0" arrivalPos="0.10" arrivalSpeed="13.88" duration="44.20" routeLength="504.21" waitingTime="0.00" waitingCount="0" stopTime="0.00" timeLoss="7.98" rerouteNo="0" devices="tripinfo_veh_20" vType="DEFAULT_VEHTYPE" speedFactor="1.00" vaporized=""/>
    <tripinfo id="veh_26" depart="15.90" departLane="1to2_1" departPos="5.10" departSpeed="0.00" departDelay="15.90" arrival="63.10" arrivalLane="out_0" arrivalPos="0.13" arrivalSpeed="11.96" duration="47.20" routeLength="504.91" waitingTime="0.00" waitingCount="0" stopTime="0.00" timeLoss="5.33" rerouteNo="0" devices="tripinfo_veh_26" vType="DEFAULT_VEHTYPE" speedFactor="0.87" vaporized=""/>
    <tripinfo id="veh_32" depart="21.10" departLane="1to2_1" departPos="5.10" departSpeed="0.00" departDelay="21.10" arrival="64.40" arrivalLane="gneE9_0" arrivalPos="0.10" arrivalSpeed="13.73" duration="43.30" routeLength="504.21" waitingTime="0.00" waitingCount="0" stopTime="0.00" timeLoss="6.58" rerouteNo="0" devices="tripinfo_veh_32" vType="DEFAULT_VEHTYPE" speedFactor="0.99" vaporized=""/>
    <tripinfo id="veh_30" depart="18.50" departLane="1to2_0" departPos="5.10" departSpeed="0.00" departDelay="18.50" arrival="64.50" arrivalLane="out_0" arrivalPos="0.13" arrivalSpeed="14.22" duration="46.00" routeLength="504.91" waitingTime="0.00" waitingCount="0" stopTime="0.00" timeLoss="10.73" rerouteNo="0" devices="tripinfo_veh_30" vType="DEFAULT_VEHTYPE" speedFactor="1.03" vaporized=""/>
    <tripinfo id="veh_31" depart="21.10" departLane="1to2_0" departPos="5.10" departSpeed="0.00" departDelay="21.10" arrival="65.50" arrivalLane="gneE8_0" arrivalPos="0.20" arrivalSpeed="12.19" duration="44.40" routeLength="505.41" waitingTime="0.00" waitingCount="0" stopTime="0.00" timeLoss="3.19" rerouteNo="0" devices="tripinfo_veh_31" vType="DEFAULT_VEHTYPE" speedFactor="0.88" vaporized=""/>
    <tripinfo id="veh_52" depart="23.80" departLane="1to2_0" departPos="5.10" departSpeed="0.00" departDelay="23.80" arrival="65.60" arrivalLane="gneE7_0" arrivalPos="0.20" arrivalSpeed="15.37" duration="41.80" routeLength="506.78" waitingTime="0.00" waitingCount="0" stopTime="0.00" timeLoss="8.98" rerouteNo="0" devices="tripinfo_veh_52" vType="DEFAULT_VEHTYPE" speedFactor="1.11" vaporized=""/>
    <tripinfo id="veh_40" depart="23.80" departLane="1to2_3" departPos="5.10" departSpeed="0.00" departDelay="23.80" arrival="65.90" arrivalLane="out_0" arrivalPos="0.13" arrivalSpeed="15.22" duration="42.10" routeLength="504.91" waitingTime="0.00" waitingCount="0" stopTime="0.00" timeLoss="9.15" rerouteNo="0" devices="tripinfo_veh_40" vType="DEFAULT_VEHTYPE" speedFactor="1.10" vaporized=""/>
    <tripinfo id="veh_29" depart="18.60" departLane="1to2_2" departPos="5.10" departSpeed="0.00" departDelay="18.60" arrival="67.10" arrivalLane="gneE8_0" arrivalPos="0.20" arrivalSpeed="12.52" duration="48.50" routeLength="505.41" waitingTime="0.00" waitingCount="0" stopTime="0.00" timeLoss="8.37" rerouteNo="0" devices="tripinfo_veh_29" vType="DEFAULT_VEHTYPE" speedFactor="0.91" vaporized=""/>
    <tripinfo id="veh_39" depart="23.80" departLane="1to2_1" departPos="5.10" departSpeed="0.00" departDelay="23.80" arrival="68.20" arrivalLane="gneE9_0" arrivalPos="0.10" arrivalSpeed="12.36" duration="44.40" routeLength="504.21" waitingTime="0.00" waitingCount="0" stopTime="0.00" timeLoss="3.85" rerouteNo="0" devices="tripinfo_veh_39" vType="DEFAULT_VEHTYPE" speedFactor="0.90" vaporized=""/>
    <tripinfo id="veh_45" depart="26.40" departLane="1to2_3" departPos="5.10" departSpeed="0.00" departDelay="26.40" arrival="69.60" arrivalLane="gneE9_0" arrivalPos="0.10" arrivalSpeed="14.87" duration="43.20" routeLength="504.21" waitingTime="0.00" waitingCount="0" stopTime="0.00" timeLoss="12.74" rerouteNo="0" devices="tripinfo_veh_45" vType="DEFAULT_VEHTYPE" speedFactor="1.19" vaporized=""/>
    <tripinfo id="veh_28" depart="18.50" departLane="1to2_1" departPos="5.10" departSpeed="0.00" departDelay="18.50" arrival="69.70" arrivalLane="gneE7_0" arrivalPos="0.20" arrivalSpeed="12.19" duration="51.20" routeLength="506.78" waitingTime="0.00" waitingCount="0" stopTime="0.00" timeLoss="9.86" rerouteNo="0" devices="tripinfo_veh_28" vType="DEFAULT_VEHTYPE" speedFactor="0.88" vaporized=""/>
    <tripinfo id="veh_41" depart="26.30" departLane="1to2_1" departPos="5.10" departSpeed="0.00" departDelay="26.30" arrival="71.00" arrivalLane="gneE9_0" arrivalPos="0.10" arrivalSpeed="13.50" duration="44.70" routeLength="504.21" waitingTime="0.00" waitingCount="0" stopTime="0.00" timeLoss="7.42" rerouteNo="0" devices="tripinfo_veh_41" vType="DEFAULT_VEHTYPE" speedFactor="0.98" vaporized=""/>
    <tripinfo id="veh_34" depart="21.20" departLane="1to2_2" departPos="5.10" departSpeed="0.00" departDelay="21.20" arrival="71.30" arrivalLane="gneE7_0" arrivalPos="0.20" arrivalSpeed="12.38" duration="50.10" routeLength="506.78" waitingTime="0.00" waitingCount="0" stopTime="0.00" timeLoss="9.46" rerouteNo="0" devices="tripinfo_veh_34" vType="DEFAULT_VEHTYPE" speedFactor="0.90" vaporized=""/>
    <tripinfo id="veh_50" depart="26.50" departLane="1to2_0" departPos="5.10" departSpeed="0.00" departDelay="26.50" arrival="72.30" arrivalLane="gneE9_0" arrivalPos="0.10" arrivalSpeed="14.70" duration="45.80" routeLength="504.21" waitingTime="0.00" waitingCount="0" stopTime="0.00" timeLoss="11.79" rerouteNo="0" devices="tripinfo_veh_50" vType="DEFAULT_VEHTYPE" speedFactor="1.07" vaporized=""/>
    <tripinfo id="veh_33" depart="23.80" departLane="1to2_2" departPos="5.10" departSpeed="0.00" departDelay="23.80" arrival="72.80" arrivalLane="gneE7_0" arrivalPos="0.20" arrivalSpeed="14.01" duration="49.00" routeLength="506.78" waitingTime="0.00" waitingCount="0" stopTime="0.00" timeLoss="13.11" rerouteNo="0" devices="tripinfo_veh_33" vType="DEFAULT_VEHTYPE" speedFactor="1.02" vaporized=""/>
    <tripinfo id="veh_48" depart="31.60" departLane="1to2_1" departPos="5.10" departSpeed="0.00" departDelay="31.60" arrival="73.80" arrivalLane="gneE9_0" arrivalPos="0.10" arrivalSpeed="14.78" duration="42.20" routeLength="504.21" waitingTime="0.00" waitingCount="0" stopTime="0.00" timeLoss="8.32" rerouteNo="0" devices="tripinfo_veh_48" vType="DEFAULT_VEHTYPE" speedFactor="1.07" vaporized=""/>
    <tripinfo id="veh_61" depart="31.80" departLane="1to2_3" departPos="5.10" departSpeed="0.00" departDelay="31.80" arrival="74.00" arrivalLane="out_0" arrivalPos="0.13" arrivalSpeed="12.92" duration="42.20" routeLength="504.91" waitingTime="0.00" waitingCount="0" stopTime="0.00" timeLoss="3.31" rerouteNo="0" devices="tripinfo_veh_61" vType="DEFAULT_VEHTYPE" speedFactor="0.94" vaporized=""/>
    <tripinfo id="veh_37" depart="29.00" departLane="1to2_1" departPos="5.10" departSpeed="0.00" departDelay="29.00" arrival="74.20" arrivalLane="gneE7_0" arrivalPos="0.20" arrivalSpeed="15.01" duration="45.20" routeLength="506.78" waitingTime="0.00" waitingCount="0" stopTime="0.00" timeLoss="11.57" rerouteNo="0" devices="tripinfo_veh_37" vType="DEFAULT_VEHTYPE" speedFactor="1.09" vaporized=""/>
    <tripinfo id="veh_49" depart="29.10" departLane="1to2_0" departPos="5.10" departSpeed="0.00" departDelay="29.10" arrival="74.50" arrivalLane="gneE8_0" arrivalPos="0.20" arrivalSpeed="12.46" duration="45.40" routeLength="505.41" waitingTime="0.00" waitingCount="0" stopTime="0.00" timeLoss="5.03" rerouteNo="0" devices="tripinfo_veh_49" vType="DEFAULT_VEHTYPE" speedFactor="0.90" vaporized=""/>
    <tripinfo id="veh_47" depart="31.70" departLane="1to2_0" departPos="5.10" departSpeed="0.00" departDelay="31.70" arrival="75.50" arrivalLane="gneE7_0" arrivalPos="0.20" arrivalSpeed="16.65" duration="43.80" routeLength="506.78" waitingTime="0.00" waitingCount="0" stopTime="0.00" timeLoss="13.41" rerouteNo="0" devices="tripinfo_veh_47" vType="DEFAULT_VEHTYPE" speedFactor="1.20" vaporized=""/>
    <tripinfo id="veh_36" depart="29.10" departLane="1to2_3" departPos="5.10" departSpeed="0.00" departDelay="29.10" arrival="75.60" arrivalLane="gneE9_0" arrivalPos="0.10" arrivalSpeed="13.12" duration="46.50" routeLength="504.21" waitingTime="0.00" waitingCount="0" stopTime="0.00" timeLoss="8.42" rerouteNo="0" devices="tripinfo_veh_36" vType="DEFAULT_VEHTYPE" speedFactor="0.95" vaporized=""/>
    <tripinfo id="veh_38" depart="26.40" departLane="1to2_2" departPos="5.10" departSpeed="0.00" departDelay="26.40" arrival="75.80" arrivalLane="out_0" arrivalPos="0.13" arrivalSpeed="13.35" duration="49.40" routeLength="504.91" waitingTime="0.00" waitingCount="0" stopTime="0.00" timeLoss="11.85" rerouteNo="0" devices="tripinfo_veh_38" vType="DEFAULT_VEHTYPE" speedFactor="0.97" vaporized=""/>
    <tripinfo id="veh_57" depart="37.10" departLane="1to2_3" departPos="5.10" departSpeed="0.00" departDelay="37.10" arrival="76.20" arrivalLane="gneE8_0" arrivalPos="0.20" arrivalSpeed="15.44" duration="39.10" routeLength="505.41" waitingTime="0.00" waitingCount="0" stopTime="0.00" timeLoss="6.48" rerouteNo="0" devices="tripinfo_veh_57" vType="DEFAULT_VEHTYPE" speedFactor="1.12" vaporized=""/>
    <tripinfo id="veh_42" depart="34.30" departLane="1to2_1" departPos="5.10" departSpeed="0.00" departDelay="34.30" arrival="77.00" arrivalLane="gneE9_0" arrivalPos="0.10" arrivalSpeed="15.40" duration="42.70" routeLength="504.21" waitingTime="0.00" waitingCount="0" stopTime="0.00" timeLoss="10.00" rerouteNo="0" devices="tripinfo_veh_42" vType="DEFAULT_VEHTYPE" speedFactor="1.11" vaporized=""/>
    <tripinfo id="veh_53" depart="34.50" departLane="1to2_3" departPos="5.10" departSpeed="0.00" departDelay="34.50" arrival="78.50" arrivalLane="out_0" arrivalPos="0.13" arrivalSpeed="12.44" duration="44.00" routeLength="504.91" waitingTime="0.00" waitingCount="0" stopTime="0.00" timeLoss="3.73" rerouteNo="0" devices="tripinfo_veh_53" vType="DEFAULT_VEHTYPE" speedFactor="0.90" vaporized=""/>
    <tripinfo id="veh_54" depart="36.90" departLane="1to2_2" departPos="5.10" departSpeed="0.00" departDelay="36.90" arrival="78.50" arrivalLane="gneE9_0" arrivalPos="0.10" arrivalSpeed="14.57" duration="41.60" routeLength="504.21" waitingTime="0.00" waitingCount="0" stopTime="0.00" timeLoss="7.01" rerouteNo="0" devices="tripinfo_veh_54" vType="DEFAULT_VEHTYPE" speedFactor="1.05" vaporized=""/>
    <tripinfo id="veh_51" depart="34.30" departLane="1to2_0" departPos="5.10" departSpeed="0.00" departDelay="34.30" arrival="79.00" arrivalLane="gneE8_0" arrivalPos="0.20" arrivalSpeed="12.24" duration="44.70" routeLength="505.41" waitingTime="0.00" waitingCount="0" stopTime="0.00" timeLoss="3.68" rerouteNo="0" devices="tripinfo_veh_51" vType="DEFAULT_VEHTYPE" speedFactor="0.89" vaporized=""/>
    <tripinfo id="veh_70" depart="39.50" departLane="1to2_0" departPos="5.10" departSpeed="0.00" departDelay="39.50" arrival="79.10" arrivalLane="gneE7_0" arrivalPos="0.20" arrivalSpeed="14.69" duration="39.60" routeLength="506.78" waitingTime="0.00" waitingCount="0" stopTime="0.00" timeLoss="5.19" rerouteNo="0" devices="tripinfo_veh_70" vType="DEFAULT_VEHTYPE" speedFactor="1.06" vaporized=""/>
    <tripinfo id="veh_60" depart="39.70" departLane="1to2_1" departPos="5.10" departSpeed="0.00" departDelay="39.70" arrival="79.90" arrivalLane="gneE9_0" arrivalPos="0.10" arrivalSpeed="15.52" duration="40.20" routeLength="504.21" waitingTime="0.00" waitingCount="0" stopTime="0.00" timeLoss="7.71" rerouteNo="0" devices="tripinfo_veh_60" vType="DEFAULT_VEHTYPE" speedFactor="1.12" vaporized=""/>
    <tripinfo id="veh_67" depart="36.90" departLane="1to2_0" departPos="5.10" departSpeed="0.00" departDelay="36.90" arrival="80.00" arrivalLane="out_0" arrivalPos="0.13" arrivalSpeed="14.32" duration="43.10" routeLength="504.91" waitingTime="0.00" waitingCount="0" stopTime="0.00" timeLoss="8.08" rerouteNo="0" devices="tripinfo_veh_67" vType="DEFAULT_VEHTYPE" speedFactor="1.04" vaporized=""/>
    <tripinfo id="veh_46" depart="34.20" departLane="1to2_2" departPos="5.10" departSpeed="0.00" departDelay="34.20" arrival="80.60" arrivalLane="gneE8_0" arrivalPos="0.20" arrivalSpeed="13.09" duration="46.40" routeLength="505.41" waitingTime="0.00" waitingCount="0" stopTime="0.00" timeLoss="7.88" rerouteNo="0" devices="tripinfo_veh_46" vType="DEFAULT_VEHTYPE" speedFactor="0.95" vaporized=""/>
    <tripinfo id="veh_64" depart="39.70" departLane="1to2_3" departPos="5.10" departSpeed="0.00" departDelay="39.70" arrival="80.90" arrivalLane="gneE7_0" arrivalPos="0.20" arrivalSpeed="13.99" duration="41.20" routeLength="506.78" waitingTime="0.00" waitingCount="0" stopTime="0.00" timeLoss="5.04" rerouteNo="0" devices="tripinfo_veh_64" vType="DEFAULT_VEHTYPE" speedFactor="1.01" vaporized=""/>
    <tripinfo id="veh_55" depart="39.60" departLane="1to2_2" departPos="5.10" departSpeed="0.00" departDelay="39.60" arrival="82.10" arrivalLane="gneE8_0" arrivalPos="0.20" arrivalSpeed="13.77" duration="42.50" routeLength="505.41" waitingTime="0.00" waitingCount="0" stopTime="0.00" timeLoss="5.90" rerouteNo="0" devices="tripinfo_veh_55" vType="DEFAULT_VEHTYPE" speedFactor="0.99" vaporized=""/>
    <tripinfo id="veh_59" depart="29.00" departLane="1to2_2" departPos="5.10" departSpeed="0.00" departDelay="29.00" arrival="82.50" arrivalLane="gneE7_0" arrivalPos="0.20" arrivalSpeed="13.97" duration="53.50" routeLength="506.78" waitingTime="0.00" waitingCount="0" stopTime="0.00" timeLoss="17.47" rerouteNo="0" devices="tripinfo_veh_59" vType="DEFAULT_VEHTYPE" speedFactor="1.01" vaporized=""/>
    <tripinfo id="veh_44" depart="31.60" departLane="1to2_2" departPos="5.10" departSpeed="0.00" departDelay="31.60" arrival="83.70" arrivalLane="gneE8_0" arrivalPos="0.20" arrivalSpeed="13.22" duration="52.10" routeLength="505.41" waitingTime="0.00" waitingCount="0" stopTime="0.00" timeLoss="14.22" rerouteNo="0" devices="tripinfo_veh_44" vType="DEFAULT_VEHTYPE" speedFactor="0.96" vaporized=""/>
    <tripinfo id="veh_56" depart="37.00" departLane="1to2_1" departPos="5.10" departSpeed="0.00" departDelay="37.00" arrival="84.50" arrivalLane="gneE7_0" arrivalPos="0.20" arrivalSpeed="13.35" duration="47.50" routeLength="506.78" waitingTime="0.00" waitingCount="0" stopTime="0.00" timeLoss="9.56" rerouteNo="0" devices="tripinfo_veh_56" vType="DEFAULT_VEHTYPE" speedFactor="0.96" vaporized=""/>
    <tripinfo id="veh_62" depart="42.60" departLane="1to2_1" departPos="5.10" departSpeed="0.00" departDelay="42.60" arrival="86.00" arrivalLane="gneE7_0" arrivalPos="0.20" arrivalSpeed="14.72" duration="43.40" routeLength="506.78" waitingTime="0.00" waitingCount="0" stopTime="0.00" timeLoss="9.02" rerouteNo="0" devices="tripinfo_veh_62" vType="DEFAULT_VEHTYPE" speedFactor="1.06" vaporized=""/>
    <tripinfo id="veh_58" depart="42.10" departLane="1to2_0" departPos="5.10" departSpeed="0.00" departDelay="42.10" arrival="88.30" arrivalLane="gneE8_0" arrivalPos="0.20" arrivalSpeed="11.63" duration="46.20" routeLength="505.41" waitingTime="0.00" waitingCount="0" stopTime="0.00" timeLoss="3.07" rerouteNo="0" devices="tripinfo_veh_58" vType="DEFAULT_VEHTYPE" speedFactor="0.84" vaporized=""/>
    <tripinfo id="veh_76" depart="47.80" departLane="1to2_3" departPos="5.10" departSpeed="0.00" departDelay="47.80" arrival="88.40" arrivalLane="gneE7_0" arrivalPos="0.20" arrivalSpeed="14.31" duration="40.60" routeLength="506.78" waitingTime="0.00" waitingCount="0" stopTime="0.00" timeLoss="5.35" rerouteNo="0" devices="tripinfo_veh_76" vType="DEFAULT_VEHTYPE" speedFactor="1.04" vaporized=""/>
    <tripinfo id="veh_69" depart="42.40" departLane="1to2_3" departPos="5.10" departSpeed="0.00" departDelay="42.40" arrival="89.80" arrivalLane="gneE8_0" arrivalPos="0.20" arrivalSpeed="13.46" duration="47.40" routeLength="505.41" waitingTime="0.00" waitingCount="0" stopTime="0.00" timeLoss="9.89" rerouteNo="0" devices="tripinfo_veh_69" vType="DEFAULT_VEHTYPE" speedFactor="0.97" vaporized=""/>
    <tripinfo id="veh_75" depart="50.20" departLane="1to2_2" departPos="5.10" departSpeed="0.00" departDelay="50.20" arrival="89.90" arrivalLane="out_0" arrivalPos="0.13" arrivalSpeed="13.91" duration="39.70" routeLength="504.91" waitingTime="0.00" waitingCount="0" stopTime="0.00" timeLoss="3.46" rerouteNo="0" devices="tripinfo_veh_75" vType="DEFAULT_VEHTYPE" speedFactor="1.00" vaporized=""/>
    <tripinfo id="veh_72" depart="47.40" departLane="1to2_0" departPos="5.10" departSpeed="0.00" departDelay="47.40" arrival="91.20" arrivalLane="gneE8_0" arrivalPos="0.20" arrivalSpeed="14.29" duration="43.80" routeLength="505.41" waitingTime="0.00" waitingCount="0" stopTime="0.00" timeLoss="8.45" rerouteNo="0" devices="tripinfo_veh_72" vType="DEFAULT_VEHTYPE" speedFactor="1.03" vaporized=""/>
    <tripinfo id="veh_84" depart="52.60" departLane="1to2_0" departPos="5.10" departSpeed="0.00" departDelay="52.60" arrival="91.20" arrivalLane="gneE9_0" arrivalPos="0.10" arrivalSpeed="14.42" duration="38.60" routeLength="504.21" waitingTime="0.00" waitingCount="0" stopTime="0.00" timeLoss="3.76" rerouteNo="0" devices="tripinfo_veh_84" vType="DEFAULT_VEHTYPE" speedFactor="1.04" vaporized=""/>
    <tripinfo id="veh_65" depart="44.70" departLane="1to2_0" departPos="5.10" departSpeed="0.00" departDelay="44.70" arrival="92.80" arrivalLane="gneE8_0" arrivalPos="0.20" arrivalSpeed="13.20" duration="48.10" routeLength="505.41" waitingTime="0.00" waitingCount="0" stopTime="0.00" timeLoss="9.83" rerouteNo="0" devices="tripinfo_veh_65" vType="DEFAULT_VEHTYPE" speedFactor="0.95" vaporized=""/>