<?xml version="1.0" encoding="UTF-8"?>

<!-- generated on 日 12/27 12:31:55 2020 by Eclipse SUMO GUI Version 1.7.0
<configuration xmlns:xsi="http://www.w3.org/2001/XMLSchema-instance" xsi:noNamespaceSchemaLocation="http://sumo.dlr.de/xsd/sumoConfiguration.xsd">

    <input>
        <net-file value="my_data/hello.net.xml"/>
        <route-files value="my_data/hello.rou.xml"/>
    </input>

    <output>
        <tripinfo-output value="tripinfo.xml"/>
    </output>

    <time>
        <begin value="0"/>
        <end value="10000"/>
        <step-length value="0.1"/>
    </time>

    <traci_server>
        <remote-port value="51365"/>
    </traci_server>

    <random_number>
        <random value="true"/>
    </random_number>

    <gui_only>
        <gui-settings-file value="my_data/hello.settings.xml"/>
        <tracker-interval value="0.1"/>
    </gui_only>

</configuration>
-->

<tripinfos xmlns:xsi="http://www.w3.org/2001/XMLSchema-instance" xsi:noNamespaceSchemaLocation="http://sumo.dlr.de/xsd/tripinfo_file.xsd">
    <tripinfo id="veh_0" depart="0.00" departLane="1to2_0" departPos="5.10" departSpeed="0.00" departDelay="0.00" arrival="41.60" arrivalLane="gneE8_0" arrivalPos="0.20" arrivalSpeed="13.16" duration="41.60" routeLength="505.41" waitingTime="0.00" waitingCount="0" stopTime="0.00" timeLoss="3.30" rerouteNo="0" devices="tripinfo_veh_0" vType="DEFAULT_VEHTYPE" speedFactor="0.95" vaporized=""/>
    <tripinfo id="veh_3" depart="0.00" departLane="1to2_1" departPos="5.10" departSpeed="0.00" departDelay="0.00" arrival="43.20" arrivalLane="gneE9_0" arrivalPos="0.10" arrivalSpeed="12.97" duration="43.20" routeLength="504.21" waitingTime="0.00" waitingCount="0" stopTime="0.00" timeLoss="4.38" rerouteNo="0" devices="tripinfo_veh_3" vType="DEFAULT_VEHTYPE" speedFactor="0.94" vaporized=""/>
    <tripinfo id="veh_1" depart="2.60" departLane="1to2_0" departPos="5.10" departSpeed="0.00" departDelay="2.60" arrival="44.80" arrivalLane="gneE9_0" arrivalPos="0.10" arrivalSpeed="13.07" duration="42.20" routeLength="504.21" waitingTime="0.00" waitingCount="0" stopTime="0.00" timeLoss="3.60" rerouteNo="0" devices="tripinfo_veh_1" vType="DEFAULT_VEHTYPE" speedFactor="0.94" vaporized=""/>
    <tripinfo id="veh_8" depart="0.00" departLane="1to2_3" departPos="5.10" departSpeed="0.00" departDelay="0.00" arrival="46.30" arrivalLane="gneE9_0" arrivalPos="0.10" arrivalSpeed="12.75" duration="46.30" routeLength="504.21" waitingTime="0.00" waitingCount="0" stopTime="0.00" timeLoss="7.14" rerouteNo="0" devices="tripinfo_veh_8" vType="DEFAULT_VEHTYPE" speedFactor="0.93" vaporized=""/>
    <tripinfo id="veh_6" depart="0.00" departLane="1to2_2" departPos="5.10" departSpeed="0.00" departDelay="0.00" arrival="47.90" arrivalLane="gneE9_0" arrivalPos="0.10" arrivalSpeed="12.57" duration="47.90" routeLength="504.21" waitingTime="0.00" waitingCount="0" stopTime="0.00" timeLoss="7.99" rerouteNo="0" devices="tripinfo_veh_6" vType="DEFAULT_VEHTYPE" speedFactor="0.91" vaporized=""/>
    <tripinfo id="veh_7" depart="2.80" departLane="1to2_2" departPos="5.10" departSpeed="0.00" departDelay="2.80" arrival="48.60" arrivalLane="gneE7_0" arrivalPos="0.20" arrivalSpeed="11.93" duration="45.80" routeLength="506.78" waitingTime="0.00" waitingCount="0" stopTime="0.00" timeLoss="3.79" rerouteNo="0" devices="tripinfo_veh_7" vType="DEFAULT_VEHTYPE" speedFactor="0.87" vaporized=""/>
    <tripinfo id="veh_4" depart="2.60" departLane="1to2_3" departPos="5.10" departSpeed="0.00" departDelay="2.60" arrival="49.40" arrivalLane="gneE9_0" arrivalPos="0.10" arrivalSpeed="14.28" duration="46.80" routeLength="504.21" waitingTime="0.00" waitingCount="0" stopTime="0.00" timeLoss="11.49" rerouteNo="0" devices="tripinfo_veh_4" vType="DEFAULT_VEHTYPE" speedFactor="1.03" vaporized=""/>
    <tripinfo id="veh_5" depart="2.60" departLane="1to2_1" departPos="5.10" departSpeed="0.00" departDelay="2.60" arrival="50.20" arrivalLane="out_0" arrivalPos="0.13" arrivalSpeed="11.80" duration="47.60" routeLength="504.91" waitingTime="0.00" waitingCount="0" stopTime="0.00" timeLoss="4.95" rerouteNo="0" devices="tripinfo_veh_5" vType="DEFAULT_VEHTYPE" speedFactor="0.85" vaporized=""/>
    <tripinfo id="veh_2" depart="5.20" departLane="1to2_1" departPos="5.10" departSpeed="0.00" departDelay="5.20" arrival="51.70" arrivalLane="out_0" arrivalPos="0.13" arrivalSpeed="13.97" duration="46.50" routeLength="504.91" waitingTime="0.00" waitingCount="0" stopTime="0.00" timeLoss="10.35" rerouteNo="0" devices="tripinfo_veh_2" vType="DEFAULT_VEHTYPE" speedFactor="1.01" vaporized=""/>
    <tripinfo id="veh_9" depart="5.20" departLane="1to2_0" departPos="5.10" departSpeed="0.00" departDelay="5.20" arrival="52.00" arrivalLane="gneE7_0" arrivalPos="0.20" arrivalSpeed="11.56" duration="46.80" routeLength="506.78" waitingTime="0.00" waitingCount="0" stopTime="0.00" timeLoss="3.01" rerouteNo="0" devices="tripinfo_veh_9" vType="DEFAULT_VEHTYPE" speedFactor="0.83" vaporized=""/>
</tripinfos>
