<?xml version="1.0" encoding="UTF-8"?>

<!-- generated on 日 12/27 03:20:26 2020 by Eclipse SUMO GUI Version 1.7.0
<configuration xmlns:xsi="http://www.w3.org/2001/XMLSchema-instance" xsi:noNamespaceSchemaLocation="http://sumo.dlr.de/xsd/sumoConfiguration.xsd">

    <input>
        <net-file value="my_data/hello.net.xml"/>
        <route-files value="my_data/hello.rou.xml"/>
    </input>

    <output>
        <tripinfo-output value="tripinfo.xml"/>
    </output>

    <time>
        <begin value="0"/>
        <end value="10000"/>
        <step-length value="0.1"/>
    </time>

    <traci_server>
        <remote-port value="49931"/>
    </traci_server>

    <random_number>
        <random value="true"/>
    </random_number>

    <gui_only>
        <gui-settings-file value="my_data/hello.settings.xml"/>
        <tracker-interval value="0.1"/>
    </gui_only>

</configuration>
-->

<tripinfos xmlns:xsi="http://www.w3.org/2001/XMLSchema-instance" xsi:noNamespaceSchemaLocation="http://sumo.dlr.de/xsd/tripinfo_file.xsd">
    <tripinfo id="veh_1" depart="0.00" departLane="1to2_3" departPos="5.10" departSpeed="0.00" departDelay="0.00" arrival="41.40" arrivalLane="gneE9_0" arrivalPos="0.10" arrivalSpeed="13.20" duration="41.40" routeLength="504.21" waitingTime="0.00" waitingCount="0" stopTime="0.00" timeLoss="3.34" rerouteNo="0" devices="tripinfo_veh_1" vType="DEFAULT_VEHTYPE" speedFactor="0.95" vaporized=""/>
    <tripinfo id="veh_2" depart="0.00" departLane="1to2_1" departPos="5.10" departSpeed="0.00" departDelay="0.00" arrival="42.60" arrivalLane="gneE8_0" arrivalPos="0.20" arrivalSpeed="13.74" duration="42.60" routeLength="505.41" waitingTime="0.00" waitingCount="0" stopTime="0.00" timeLoss="5.93" rerouteNo="0" devices="tripinfo_veh_2" vType="DEFAULT_VEHTYPE" speedFactor="0.99" vaporized=""/>
    <tripinfo id="veh_5" depart="2.60" departLane="1to2_0" departPos="5.10" departSpeed="0.00" departDelay="2.60" arrival="45.40" arrivalLane="gneE7_0" arrivalPos="0.20" arrivalSpeed="13.37" duration="42.80" routeLength="506.78" waitingTime="0.00" waitingCount="0" stopTime="0.00" timeLoss="5.04" rerouteNo="0" devices="tripinfo_veh_5" vType="DEFAULT_VEHTYPE" speedFactor="0.97" vaporized=""/>
    <tripinfo id="veh_0" depart="0.00" departLane="1to2_0" departPos="5.10" departSpeed="0.00" departDelay="0.00" arrival="46.10" arrivalLane="out_0" arrivalPos="0.13" arrivalSpeed="11.79" duration="46.10" routeLength="504.91" waitingTime="0.00" waitingCount="0" stopTime="0.00" timeLoss="3.51" rerouteNo="0" devices="tripinfo_veh_0" vType="DEFAULT_VEHTYPE" speedFactor="0.85" vaporized=""/>
    <tripinfo id="veh_7" depart="2.60" departLane="1to2_1" departPos="5.10" departSpeed="0.00" departDelay="2.60" arrival="46.40" arrivalLane="gneE9_0" arrivalPos="0.10" arrivalSpeed="13.13" duration="43.80" routeLength="504.21" waitingTime="0.00" waitingCount="0" stopTime="0.00" timeLoss="5.51" rerouteNo="0" devices="tripinfo_veh_7" vType="DEFAULT_VEHTYPE" speedFactor="0.95" vaporized=""/>
    <tripinfo id="veh_8" depart="5.30" departLane="1to2_3" departPos="5.10" departSpeed="0.00" departDelay="5.30" arrival="47.70" arrivalLane="gneE7_0" arrivalPos="0.20" arrivalSpeed="12.93" duration="42.40" routeLength="506.78" waitingTime="0.00" waitingCount="0" stopTime="0.00" timeLoss="3.52" rerouteNo="0" devices="tripinfo_veh_8" vType="DEFAULT_VEHTYPE" speedFactor="0.94" vaporized=""/>
    <tripinfo id="veh_3" depart="0.00" departLane="1to2_2" departPos="5.10" departSpeed="0.00" departDelay="0.00" arrival="47.80" arrivalLane="out_0" arrivalPos="0.13" arrivalSpeed="11.85" duration="47.80" routeLength="504.91" waitingTime="0.00" waitingCount="0" stopTime="0.00" timeLoss="5.56" rerouteNo="0" devices="tripinfo_veh_3" vType="DEFAULT_VEHTYPE" speedFactor="0.86" vaporized=""/>
    <tripinfo id="veh_6" depart="2.60" departLane="1to2_2" departPos="5.10" departSpeed="0.00" departDelay="2.60" arrival="47.80" arrivalLane="gneE9_0" arrivalPos="0.10" arrivalSpeed="14.55" duration="45.20" routeLength="504.21" waitingTime="0.00" waitingCount="0" stopTime="0.00" timeLoss="10.67" rerouteNo="0" devices="tripinfo_veh_6" vType="DEFAULT_VEHTYPE" speedFactor="1.05" vaporized=""/>
    <tripinfo id="veh_16" depart="8.00" departLane="1to2_0" departPos="5.10" departSpeed="0.00" departDelay="8.00" arrival="49.20" arrivalLane="gneE7_0" arrivalPos="0.20" arrivalSpeed="14.11" duration="41.20" routeLength="506.78" waitingTime="0.00" waitingCount="0" stopTime="0.00" timeLoss="5.31" rerouteNo="0" devices="tripinfo_veh_16" vType="DEFAULT_VEHTYPE" speedFactor="1.02" vaporized=""/>
    <tripinfo id="veh_4" depart="2.60" departLane="1to2_3" departPos="5.10" departSpeed="0.00" departDelay="2.60" arrival="49.30" arrivalLane="gneE9_0" arrivalPos="0.10" arrivalSpeed="14.13" duration="46.70" routeLength="504.21" waitingTime="0.00" waitingCount="0" stopTime="0.00" timeLoss="11.27" rerouteNo="0" devices="tripinfo_veh_4" vType="DEFAULT_VEHTYPE" speedFactor="1.02" vaporized=""/>
    <tripinfo id="veh_13" depart="10.60" departLane="1to2_3" departPos="5.10" departSpeed="0.00" departDelay="10.60" arrival="49.30" arrivalLane="out_0" arrivalPos="0.13" arrivalSpeed="14.75" duration="38.70" routeLength="504.91" waitingTime="0.00" waitingCount="0" stopTime="0.00" timeLoss="7.22" rerouteNo="0" devices="tripinfo_veh_13" vType="DEFAULT_VEHTYPE" speedFactor="1.16" vaporized=""/>
    <tripinfo id="veh_10" depart="5.30" departLane="1to2_2" departPos="5.10" departSpeed="0.00" departDelay="5.30" arrival="50.70" arrivalLane="gneE9_0" arrivalPos="0.10" arrivalSpeed="14.48" duration="45.40" routeLength="504.21" waitingTime="0.00" waitingCount="0" stopTime="0.00" timeLoss="10.58" rerouteNo="0" devices="tripinfo_veh_10" vType="DEFAULT_VEHTYPE" speedFactor="1.04" vaporized=""/>
    <tripinfo id="veh_9" depart="5.30" departLane="1to2_0" departPos="5.10" departSpeed="0.00" departDelay="5.30" arrival="50.90" arrivalLane="out_0" arrivalPos="0.13" arrivalSpeed="13.32" duration="45.60" routeLength="504.91" waitingTime="0.00" waitingCount="0" stopTime="0.00" timeLoss="7.97" rerouteNo="0" devices="tripinfo_veh_9" vType="DEFAULT_VEHTYPE" speedFactor="0.97" vaporized=""/>
    <tripinfo id="veh_12" depart="8.00" departLane="1to2_3" departPos="5.10" departSpeed="0.00" departDelay="8.00" arrival="52.20" arrivalLane="gneE9_0" arrivalPos="0.10" arrivalSpeed="13.80" duration="44.20" routeLength="504.21" waitingTime="0.00" waitingCount="0" stopTime="0.00" timeLoss="7.70" rerouteNo="0" devices="tripinfo_veh_12" vType="DEFAULT_VEHTYPE" speedFactor="1.00" vaporized=""/>
    <tripinfo id="veh_17" depart="10.60" departLane="1to2_0" departPos="5.10" departSpeed="0.00" departDelay="10.60" arrival="52.40" arrivalLane="out_0" arrivalPos="0.13" arrivalSpeed="14.48" duration="41.80" routeLength="504.91" waitingTime="0.00" waitingCount="0" stopTime="0.00" timeLoss="6.94" rerouteNo="0" devices="tripinfo_veh_17" vType="DEFAULT_VEHTYPE" speedFactor="1.04" vaporized=""/>
    <tripinfo id="veh_15" depart="8.00" departLane="1to2_2" departPos="5.10" departSpeed="0.00" departDelay="8.00" arrival="53.40" arrivalLane="gneE8_0" arrivalPos="0.20" arrivalSpeed="12.15" duration="45.40" routeLength="505.41" waitingTime="0.00" waitingCount="0" stopTime="0.00" timeLoss="3.83" rerouteNo="0" devices="tripinfo_veh_15" vType="DEFAULT_VEHTYPE" speedFactor="0.88" vaporized=""/>
    <tripinfo id="veh_25" depart="10.60" departLane="1to2_2" departPos="5.10" departSpeed="0.00" departDelay="10.60" arrival="53.60" arrivalLane="gneE9_0" arrivalPos="0.10" arrivalSpeed="14.34" duration="43.00" routeLength="504.21" waitingTime="0.00" waitingCount="0" stopTime="0.00" timeLoss="7.98" rerouteNo="0" devices="tripinfo_veh_25" vType="DEFAULT_VEHTYPE" speedFactor="1.04" vaporized=""/>
    <tripinfo id="veh_21" depart="13.20" departLane="1to2_3" departPos="5.10" departSpeed="0.00" departDelay="13.20" arrival="53.70" arrivalLane="out_0" arrivalPos="0.13" arrivalSpeed="16.57" duration="40.50" routeLength="504.91" waitingTime="0.00" waitingCount="0" stopTime="0.00" timeLoss="10.47" rerouteNo="0" devices="tripinfo_veh_21" vType="DEFAULT_VEHTYPE" speedFactor="1.21" vaporized=""/>
    <tripinfo id="veh_22" depart="13.20" departLane="1to2_0" departPos="5.10" departSpeed="0.00" departDelay="13.20" arrival="54.90" arrivalLane="gneE8_0" arrivalPos="0.20" arrivalSpeed="13.19" duration="41.70" routeLength="505.41" waitingTime="0.00" waitingCount="0" stopTime="0.00" timeLoss="3.71" rerouteNo="0" devices="tripinfo_veh_22" vType="DEFAULT_VEHTYPE" speedFactor="0.96" vaporized=""/>
    <tripinfo id="veh_24" depart="8.00" departLane="1to2_1" departPos="5.10" departSpeed="0.00" departDelay="8.00" arrival="56.10" arrivalLane="gneE7_0" arrivalPos="0.20" arrivalSpeed="12.76" duration="48.10" routeLength="506.78" waitingTime="0.00" waitingCount="0" stopTime="0.00" timeLoss="8.43" rerouteNo="0" devices="tripinfo_veh_24" vType="DEFAULT_VEHTYPE" speedFactor="0.92" vaporized=""/>
    <tripinfo id="veh_14" depart="13.30" departLane="1to2_1" departPos="5.10" departSpeed="0.00" departDelay="13.30" arrival="57.80" arrivalLane="out_0" arrivalPos="0.13" arrivalSpeed="12.48" duration="44.50" routeLength="504.91" waitingTime="0.00" waitingCount="0" stopTime="0.00" timeLoss="4.32" rerouteNo="0" devices="tripinfo_veh_14" vType="DEFAULT_VEHTYPE" speedFactor="0.90" vaporized=""/>
    <tripinfo id="veh_30" depart="18.60" departLane="1to2_1" departPos="5.10" departSpeed="0.00" departDelay="18.60" arrival="58.70" arrivalLane="gneE8_0" arrivalPos="0.20" arrivalSpeed="14.57" duration="40.10" routeLength="505.41" waitingTime="0.00" waitingCount="0" stopTime="0.00" timeLoss="5.39" rerouteNo="0" devices="tripinfo_veh_30" vType="DEFAULT_VEHTYPE" speedFactor="1.05" vaporized=""/>
    <tripinfo id="veh_26" depart="13.30" departLane="1to2_2" departPos="5.10" departSpeed="0.00" departDelay="13.30" arrival="59.30" arrivalLane="out_0" arrivalPos="0.13" arrivalSpeed="13.76" duration="46.00" routeLength="504.91" waitingTime="0.00" waitingCount="0" stopTime="0.00" timeLoss="9.54" rerouteNo="0" devices="tripinfo_veh_26" vType="DEFAULT_VEHTYPE" speedFactor="1.00" vaporized=""/>
    <tripinfo id="veh_29" depart="16.00" departLane="1to2_1" departPos="5.10" departSpeed="0.00" departDelay="16.00" arrival="59.50" arrivalLane="gneE9_0" arrivalPos="0.10" arrivalSpeed="12.72" duration="43.50" routeLength="504.21" waitingTime="0.00" waitingCount="0" stopTime="0.00" timeLoss="4.15" rerouteNo="0" devices="tripinfo_veh_29" vType="DEFAULT_VEHTYPE" speedFactor="0.92" vaporized=""/>
    <tripinfo id="veh_11" depart="5.30" departLane="1to2_1" departPos="5.10" departSpeed="0.00" departDelay="5.30" arrival="59.60" arrivalLane="gneE7_0" arrivalPos="0.20" arrivalSpeed="11.25" duration="54.30" routeLength="506.78" waitingTime="0.00" waitingCount="0" stopTime="0.00" timeLoss="9.57" rerouteNo="0" devices="tripinfo_veh_11" vType="DEFAULT_VEHTYPE" speedFactor="0.82" vaporized=""/>
    <tripinfo id="veh_23" depart="15.90" departLane="1to2_3" departPos="5.10" departSpeed="0.00" departDelay="15.90" arrival="60.90" arrivalLane="out_0" arrivalPos="0.13" arrivalSpeed="13.11" duration="45.00" routeLength="504.91" waitingTime="0.00" waitingCount="0" stopTime="0.00" timeLoss="6.53" rerouteNo="0" devices="tripinfo_veh_23" vType="DEFAULT_VEHTYPE" speedFactor="0.94" vaporized=""/>
    <tripinfo id="veh_18" depart="10.60" departLane="1to2_1" departPos="5.10" departSpeed="0.00" departDelay="10.60" arrival="61.10" arrivalLane="gneE7_0" arrivalPos="0.20" arrivalSpeed="13.90" duration="50.50" routeLength="506.78" waitingTime="0.00" waitingCount="0" stopTime="0.00" timeLoss="14.13" rerouteNo="0" devices="tripinfo_veh_18" vType="DEFAULT_VEHTYPE" speedFactor="1.00" vaporized=""/>
    <tripinfo id="veh_27" depart="15.80" departLane="1to2_0" departPos="5.10" departSpeed="0.00" departDelay="15.80" arrival="62.60" arrivalLane="gneE7_0" arrivalPos="0.20" arrivalSpeed="13.13" duration="46.80" routeLength="506.78" waitingTime="0.00" waitingCount="0" stopTime="0.00" timeLoss="8.16" rerouteNo="0" devices="tripinfo_veh_27" vType="DEFAULT_VEHTYPE" speedFactor="0.95" vaporized=""/>
    <tripinfo id="veh_19" depart="18.60" departLane="1to2_3" departPos="5.10" departSpeed="0.00" departDelay="18.60" arrival="63.00" arrivalLane="out_0" arrivalPos="0.13" arrivalSpeed="12.23" duration="44.40" routeLength="504.91" waitingTime="0.00" waitingCount="0" stopTime="0.00" timeLoss="3.21" rerouteNo="0" devices="tripinfo_veh_19" vType="DEFAULT_VEHTYPE" speedFactor="0.88" vaporized=""/>
    <tripinfo id="veh_39" depart="21.20" departLane="1to2_0" departPos="5.10" departSpeed="0.00" departDelay="21.20" arrival="63.60" arrivalLane="gneE8_0" arrivalPos="0.20" arrivalSpeed="12.85" duration="42.40" routeLength="505.41" waitingTime="0.00" waitingCount="0" stopTime="0.00" timeLoss="3.31" rerouteNo="0" devices="tripinfo_veh_39" vType="DEFAULT_VEHTYPE" speedFactor="0.93" vaporized=""/>
    <tripinfo id="veh_48" depart="23.90" departLane="1to2_0" departPos="5.10" departSpeed="0.00" departDelay="23.90" arrival="63.60" arrivalLane="gneE9_0" arrivalPos="0.10" arrivalSpeed="13.96" duration="39.70" routeLength="504.21" waitingTime="0.00" waitingCount="0" stopTime="0.00" timeLoss="3.60" rerouteNo="0" devices="tripinfo_veh_48" vType="DEFAULT_VEHTYPE" speedFactor="1.00" vaporized=""/>
    <tripinfo id="veh_20" depart="16.00" departLane="1to2_2" departPos="5.10" departSpeed="0.00" departDelay="16.00" arrival="64.00" arrivalLane="gneE7_0" arrivalPos="0.20" arrivalSpeed="15.16" duration="48.00" routeLength="506.78" waitingTime="0.00" waitingCount="0" stopTime="0.00" timeLoss="14.78" rerouteNo="0" devices="tripinfo_veh_20" vType="DEFAULT_VEHTYPE" speedFactor="1.10" vaporized=""/>
    <tripinfo id="veh_36" depart="21.30" departLane="1to2_2" departPos="5.10" departSpeed="0.00" departDelay="21.30" arrival="64.60" arrivalLane="out_0" arrivalPos="0.13" arrivalSpeed="12.62" duration="43.30" routeLength="504.91" waitingTime="0.00" waitingCount="0" stopTime="0.00" timeLoss="3.55" rerouteNo="0" devices="tripinfo_veh_36" vType="DEFAULT_VEHTYPE" speedFactor="0.92" vaporized=""/>
    <tripinfo id="veh_32" depart="21.30" departLane="1to2_3" departPos="5.10" departSpeed="0.00" departDelay="21.30" arrival="65.30" arrivalLane="gneE9_0" arrivalPos="0.10" arrivalSpeed="13.39" duration="44.00" routeLength="504.21" waitingTime="0.00" waitingCount="0" stopTime="0.00" timeLoss="6.46" rerouteNo="0" devices="tripinfo_veh_32" vType="DEFAULT_VEHTYPE" speedFactor="0.97" vaporized=""/>
    <tripinfo id="veh_35" depart="18.70" departLane="1to2_2" departPos="5.10" departSpeed="0.00" departDelay="18.70" arrival="65.30" arrivalLane="gneE7_0" arrivalPos="0.20" arrivalSpeed="15.70" duration="46.60" routeLength="506.78" waitingTime="0.00" waitingCount="0" stopTime="0.00" timeLoss="14.33" rerouteNo="0" devices="tripinfo_veh_35" vType="DEFAULT_VEHTYPE" speedFactor="1.13" vaporized=""/>
    <tripinfo id="veh_45" depart="26.60" departLane="1to2_0" departPos="5.10" departSpeed="0.00" departDelay="26.60" arrival="66.70" arrivalLane="gneE9_0" arrivalPos="0.10" arrivalSpeed="16.04" duration="40.10" routeLength="504.21" waitingTime="0.00" waitingCount="0" stopTime="0.00" timeLoss="9.27" rerouteNo="0" devices="tripinfo_veh_45" vType="DEFAULT_VEHTYPE" speedFactor="1.18" vaporized=""/>
    <tripinfo id="veh_37" depart="24.00" departLane="1to2_2" departPos="5.10" departSpeed="0.00" departDelay="24.00" arrival="68.10" arrivalLane="gneE9_0" arrivalPos="0.10" arrivalSpeed="14.96" duration="44.10" routeLength="504.21" waitingTime="0.00" waitingCount="0" stopTime="0.00" timeLoss="10.51" rerouteNo="0" devices="tripinfo_veh_37" vType="DEFAULT_VEHTYPE" speedFactor="1.08" vaporized=""/>
    <tripinfo id="veh_31" depart="21.20" departLane="1to2_1" departPos="5.10" departSpeed="0.00" departDelay="21.20" arrival="69.10" arrivalLane="gneE8_0" arrivalPos="0.20" arrivalSpeed="12.00" duration="47.90" routeLength="505.41" waitingTime="0.00" waitingCount="0" stopTime="0.00" timeLoss="5.91" rerouteNo="0" devices="tripinfo_veh_31" vType="DEFAULT_VEHTYPE" speedFactor="0.87" vaporized=""/>
    <tripinfo id="veh_38" depart="24.00" departLane="1to2_3" departPos="5.10" departSpeed="0.00" departDelay="24.00" arrival="70.60" arrivalLane="gneE8_0" arrivalPos="0.20" arrivalSpeed="14.48" duration="46.60" routeLength="505.41" waitingTime="0.00" waitingCount="0" stopTime="0.00" timeLoss="12.51" rerouteNo="0" devices="tripinfo_veh_38" vType="DEFAULT_VEHTYPE" speedFactor="1.07" vaporized=""/>
    <tripinfo id="veh_54" depart="29.30" departLane="1to2_3" departPos="5.10" departSpeed="0.00" departDelay="29.30" arrival="72.10" arrivalLane="gneE8_0" arrivalPos="0.20" arrivalSpeed="13.38" duration="42.80" routeLength="505.41" waitingTime="0.00" waitingCount="0" stopTime="0.00" timeLoss="5.19" rerouteNo="0" devices="tripinfo_veh_54" vType="DEFAULT_VEHTYPE" speedFactor="0.97" vaporized=""/>
    <tripinfo id="veh_28" depart="18.50" departLane="1to2_0" departPos="5.10" departSpeed="0.00" departDelay="18.50" arrival="72.70" arrivalLane="gneE7_0" arrivalPos="0.20" arrivalSpeed="9.84" duration="54.20" routeLength="506.78" waitingTime="0.00" waitingCount="0" stopTime="0.00" timeLoss="3.17" rerouteNo="0" devices="tripinfo_veh_28" vType="DEFAULT_VEHTYPE" speedFactor="0.71" vaporized=""/>
    <tripinfo id="veh_33" depart="23.90" departLane="1to2_1" departPos="5.10" departSpeed="0.00" departDelay="23.90" arrival="74.30" arrivalLane="gneE7_0" arrivalPos="0.20" arrivalSpeed="12.45" duration="50.40" routeLength="506.78" waitingTime="0.00" waitingCount="0" stopTime="0.00" timeLoss="10.06" rerouteNo="0" devices="tripinfo_veh_33" vType="DEFAULT_VEHTYPE" speedFactor="0.91" vaporized=""/>
    <tripinfo id="veh_46" depart="31.80" departLane="1to2_0" departPos="5.10" departSpeed="0.00" departDelay="31.80" arrival="74.30" arrivalLane="gneE9_0" arrivalPos="0.10" arrivalSpeed="13.55" duration="42.50" routeLength="504.21" waitingTime="0.00" waitingCount="0" stopTime="0.00" timeLoss="5.50" rerouteNo="0" devices="tripinfo_veh_46" vType="DEFAULT_VEHTYPE" speedFactor="0.98" vaporized=""/>
    <tripinfo id="veh_47" depart="31.90" departLane="1to2_3" departPos="5.10" departSpeed="0.00" departDelay="31.90" arrival="75.70" arrivalLane="gneE7_0" arrivalPos="0.20" arrivalSpeed="14.73" duration="43.80" routeLength="506.78" waitingTime="0.00" waitingCount="0" stopTime="0.00" timeLoss="10.07" rerouteNo="0" devices="tripinfo_veh_47" vType="DEFAULT_VEHTYPE" speedFactor="1.08" vaporized=""/>
    <tripinfo id="veh_52" depart="34.30" departLane="1to2_1" departPos="5.10" departSpeed="0.00" departDelay="34.30" arrival="75.70" arrivalLane="out_0" arrivalPos="0.13" arrivalSpeed="13.91" duration="41.40" routeLength="504.91" waitingTime="0.00" waitingCount="0" stopTime="0.00" timeLoss="5.36" rerouteNo="0" devices="tripinfo_veh_52" vType="DEFAULT_VEHTYPE" speedFactor="1.01" vaporized=""/>
    <tripinfo id="veh_55" depart="34.50" departLane="1to2_0" departPos="5.10" departSpeed="0.00" departDelay="34.50" arrival="75.80" arrivalLane="gneE9_0" arrivalPos="0.10" arrivalSpeed="14.46" duration="41.30" routeLength="504.21" waitingTime="0.00" waitingCount="0" stopTime="0.00" timeLoss="6.69" rerouteNo="0" devices="tripinfo_veh_55" vType="DEFAULT_VEHTYPE" speedFactor="1.05" vaporized=""/>
    <tripinfo id="veh_56" depart="34.60" departLane="1to2_3" departPos="5.10" departSpeed="0.00" departDelay="34.60" arrival="77.00" arrivalLane="gneE7_0" arrivalPos="0.20" arrivalSpeed="14.50" duration="42.40" routeLength="506.78" waitingTime="0.00" waitingCount="0" stopTime="0.00" timeLoss="7.49" rerouteNo="0" devices="tripinfo_veh_56" vType="DEFAULT_VEHTYPE" speedFactor="1.05" vaporized=""/>
    <tripinfo id="veh_58" depart="36.80" departLane="1to2_1" departPos="5.10" departSpeed="0.00" departDelay="36.80" arrival="77.10" arrivalLane="out_0" arrivalPos="0.13" arrivalSpeed="15.78" duration="40.30" routeLength="504.91" waitingTime="0.00" waitingCount="0" stopTime="0.00" timeLoss="8.30" rerouteNo="0" devices="tripinfo_veh_58" vType="DEFAULT_VEHTYPE" speedFactor="1.14" vaporized=""/>
    <tripinfo id="veh_40" depart="29.20" departLane="1to2_0" departPos="5.10" departSpeed="0.00" departDelay="29.20" arrival="78.10" arrivalLane="gneE8_0" arrivalPos="0.20" arrivalSpeed="11.56" duration="48.90" routeLength="505.41" waitingTime="0.00" waitingCount="0" stopTime="0.00" timeLoss="5.38" rerouteNo="0" devices="tripinfo_veh_40" vType="DEFAULT_VEHTYPE" speedFactor="0.84" vaporized=""/>
    <tripinfo id="veh_42" depart="26.50" departLane="1to2_1" departPos="5.10" departSpeed="0.00" departDelay="26.50" arrival="78.40" arrivalLane="gneE7_0" arrivalPos="0.20" arrivalSpeed="13.63" duration="51.90" routeLength="506.78" waitingTime="0.00" waitingCount="0" stopTime="0.00" timeLoss="14.90" rerouteNo="0" devices="tripinfo_veh_42" vType="DEFAULT_VEHTYPE" speedFactor="0.99" vaporized=""/>
    <tripinfo id="veh_44" depart="26.70" departLane="1to2_2" departPos="5.10" departSpeed="0.00" departDelay="26.70" arrival="79.50" arrivalLane="gneE8_0" arrivalPos="0.20" arrivalSpeed="14.45" duration="52.80" routeLength="505.41" waitingTime="0.00" waitingCount="0" stopTime="0.00" timeLoss="19.49" rerouteNo="0" devices="tripinfo_veh_44" vType="DEFAULT_VEHTYPE" speedFactor="1.09" vaporized=""/>
    <tripinfo id="veh_64" depart="37.10" departLane="1to2_2" departPos="5.10" departSpeed="0.00" departDelay="37.10" arrival="79.70" arrivalLane="gneE9_0" arrivalPos="0.10" arrivalSpeed="13.10" duration="42.60" routeLength="504.21" waitingTime="0.00" waitingCount="0" stopTime="0.00" timeLoss="4.35" rerouteNo="0" devices="tripinfo_veh_64" vType="DEFAULT_VEHTYPE" speedFactor="0.95" vaporized=""/>
    <tripinfo id="veh_43" depart="29.10" departLane="1to2_1" departPos="5.10" departSpeed="0.00" departDelay="29.10" arrival="79.80" arrivalLane="gneE7_0" arrivalPos="0.20" arrivalSpeed="15.18" duration="50.70" routeLength="506.78" waitingTime="0.00" waitingCount="0" stopTime="0.00" timeLoss="17.53" rerouteNo="0" devices="tripinfo_veh_43" vType="DEFAULT_VEHTYPE" speedFactor="1.10" vaporized=""/>
    <tripinfo id="veh_60" depart="37.30" departLane="1to2_3" departPos="5.10" departSpeed="0.00" departDelay="37.30" arrival="80.10" arrivalLane="out_0" arrivalPos="0.13" arrivalSpeed="12.99" duration="42.80" routeLength="504.91" waitingTime="0.00" waitingCount="0" stopTime="0.00" timeLoss="3.93" rerouteNo="0" devices="tripinfo_veh_60" vType="DEFAULT_VEHTYPE" speedFactor="0.94" vaporized=""/>
    <tripinfo id="veh_34" depart="26.60" departLane="1to2_3" departPos="5.10" departSpeed="0.00" departDelay="26.60" arrival="81.10" arrivalLane="gneE9_0" arrivalPos="0.10" arrivalSpeed="14.64" duration="54.50" routeLength="504.21" waitingTime="0.00" waitingCount="0" stopTime="0.00" timeLoss="20.37" rerouteNo="0" devices="tripinfo_veh_34" vType="DEFAULT_VEHTYPE" speedFactor="1.06" vaporized=""/>
    <tripinfo id="veh_50" depart="34.50" departLane="1to2_2" departPos="5.10" departSpeed="0.00" departDelay="34.50" arrival="81.80" arrivalLane="out_0" arrivalPos="0.13" arrivalSpeed="12.84" duration="47.30" routeLength="504.91" waitingTime="0.00" waitingCount="0" stopTime="0.00" timeLoss="8.00" rerouteNo="0" devices="tripinfo_veh_50" vType="DEFAULT_VEHTYPE" speedFactor="0.93" vaporized=""/>
    <tripinfo id="veh_49" depart="31.90" departLane="1to2_2" departPos="5.10" departSpeed="0.00" departDelay="31.90" arrival="82.10" arrivalLane="gneE7_0" arrivalPos="0.20" arrivalSpeed="11.51" duration="50.20" routeLength="506.78" waitingTime="0.00" waitingCount="0" stopTime="0.00" timeLoss="6.35" rerouteNo="0" devices="tripinfo_veh_49" vType="DEFAULT_VEHTYPE" speedFactor="0.83" vaporized=""/>
    <tripinfo id="veh_51" depart="31.70" departLane="1to2_1" departPos="5.10" departSpeed="0.00" departDelay="31.70" arrival="83.30" arrivalLane="out_0" arrivalPos="0.13" arrivalSpeed="13.85" duration="51.60" routeLength="504.91" waitingTime="0.00" waitingCount="0" stopTime="0.00" timeLoss="15.12" rerouteNo="0" devices="tripinfo_veh_51" vType="DEFAULT_VEHTYPE" speedFactor="1.00" vaporized=""/>
    <tripinfo id="veh_41" depart="29.30" departLane="1to2_2" departPos="5.10" departSpeed="0.00" departDelay="29.30" arrival="83.60" arrivalLane="gneE7_0" arrivalPos="0.20" arrivalSpeed="13.93" duration="54.30" routeLength="506.78" waitingTime="0.00" waitingCount="0" stopTime="0.00" timeLoss="18.07" rerouteNo="0" devices="tripinfo_veh_41" vType="DEFAULT_VEHTYPE" speedFactor="1.01" vaporized=""/>
    <tripinfo id="veh_68" depart="39.90" departLane="1to2_3" departPos="5.10" departSpeed="0.00" departDelay="39.90" arrival="84.10" arrivalLane="gneE8_0" arrivalPos="0.20" arrivalSpeed="16.62" duration="44.20" routeLength="505.41" waitingTime="0.00" waitingCount="0" stopTime="0.00" timeLoss="13.94" rerouteNo="0" devices="tripinfo_veh_68" vType="DEFAULT_VEHTYPE" speedFactor="1.20" vaporized=""/>
    <tripinfo id="veh_61" depart="37.20" departLane="1to2_0" departPos="5.10" departSpeed="0.00" departDelay="37.20" arrival="84.20" arrivalLane="gneE9_0" arrivalPos="0.10" arrivalSpeed="11.39" duration="47.00" routeLength="504.21" waitingTime="0.00" waitingCount="0" stopTime="0.00" timeLoss="2.95" rerouteNo="0" devices="tripinfo_veh_61" vType="DEFAULT_VEHTYPE" speedFactor="0.82" vaporized=""/>
    <tripinfo id="veh_62" depart="42.40" departLane="1to2_0" departPos="5.10" departSpeed="0.00" departDelay="42.40" arrival="84.80" arrivalLane="out_0" arrivalPos="0.13" arrivalSpeed="14.14" duration="42.40" routeLength="504.91" waitingTime="0.00" waitingCount="0" stopTime="0.00" timeLoss="6.69" rerouteNo="0" devices="tripinfo_veh_62" vType="DEFAULT_VEHTYPE" speedFactor="1.02" vaporized=""/>
    <tripinfo id="veh_65" depart="39.80" departLane="1to2_0" departPos="5.10" departSpeed="0.00" departDelay="39.80" arrival="84.90" arrivalLane="gneE7_0" arrivalPos="0.20" arrivalSpeed="15.32" duration="45.10" routeLength="506.78" waitingTime="0.00" waitingCount="0" stopTime="0.00" timeLoss="12.20" rerouteNo="0" devices="tripinfo_veh_65" vType="DEFAULT_VEHTYPE" speedFactor="1.11" vaporized=""/>
    <tripinfo id="veh_69" depart="42.40" departLane="1to2_2" departPos="5.10" departSpeed="0.00" departDelay="42.40" arrival="85.70" arrivalLane="gneE9_0" arrivalPos="0.10" arrivalSpeed="14.41" duration="43.30" routeLength="504.21" waitingTime="0.00" waitingCount="0" stopTime="0.00" timeLoss="10.82" rerouteNo="0" devices="tripinfo_veh_69" vType="DEFAULT_VEHTYPE" speedFactor="1.12" vaporized=""/>
    <tripinfo id="veh_78" depart="45.00" departLane="1to2_2" departPos="5.10" departSpeed="0.00" departDelay="45.00" arrival="86.30" arrivalLane="gneE8_0" arrivalPos="0.20" arrivalSpeed="15.08" duration="41.30" routeLength="505.41" waitingTime="0.00" waitingCount="0" stopTime="0.00" timeLoss="7.86" rerouteNo="0" devices="tripinfo_veh_78" vType="DEFAULT_VEHTYPE" speedFactor="1.09" vaporized=""/>
    <tripinfo id="veh_59" depart="39.40" departLane="1to2_1" departPos="5.10" departSpeed="0.00" departDelay="39.40" arrival="86.70" arrivalLane="gneE7_0" arrivalPos="0.20" arrivalSpeed="12.51" duration="47.30" routeLength="506.78" waitingTime="0.00" waitingCount="0" stopTime="0.00" timeLoss="7.15" rerouteNo="0" devices="tripinfo_veh_59" vType="DEFAULT_VEHTYPE" speedFactor="0.91" vaporized=""/>
    <tripinfo id="veh_57" depart="39.80" departLane="1to2_2" departPos="5.10" departSpeed="0.00" departDelay="39.80" arrival="87.10" arrivalLane="gneE9_0" arrivalPos="0.10" arrivalSpeed="14.00" duration="47.30" routeLength="504.21" waitingTime="0.00" waitingCount="0" stopTime="0.00" timeLoss="11.51" rerouteNo="0" devices="tripinfo_veh_57" vType="DEFAULT_VEHTYPE" speedFactor="1.02" vaporized=""/>
    <tripinfo id="veh_75" depart="50.50" departLane="1to2_3" departPos="5.10" departSpeed="0.00" departDelay="50.50" arrival="87.80" arrivalLane="gneE8_0" arrivalPos="0.20" arrivalSpeed="15.11" duration="37.30" routeLength="505.41" waitingTime="0.00" waitingCount="0" stopTime="0.00" timeLoss="4.07" rerouteNo="0" devices="tripinfo_veh_75" vType="DEFAULT_VEHTYPE" speedFactor="1.09" vaporized=""/>
    <tripinfo id="veh_76" depart="47.50" departLane="1to2_1" departPos="5.10" departSpeed="0.00" departDelay="47.50" arrival="89.40" arrivalLane="gneE8_0" arrivalPos="0.20" arrivalSpeed="14.43" duration="41.90" routeLength="505.41" waitingTime="0.00" waitingCount="0" stopTime="0.00" timeLoss="7.00" rerouteNo="0" devices="tripinfo_veh_76" vType="DEFAULT_VEHTYPE" speedFactor="1.04" vaporized=""/>
    <tripinfo id="veh_53" depart="42.10" departLane="1to2_1" departPos="5.10" departSpeed="0.00" departDelay="42.10" arrival="89.60" arrivalLane="gneE9_0" arrivalPos="0.10" arrivalSpeed="11.25" duration="47.50" routeLength="504.21" waitingTime="0.00" waitingCount="0" stopTime="0.00" timeLoss="2.90" rerouteNo="0" devices="tripinfo_veh_53" vType="DEFAULT_VEHTYPE" speedFactor="0.81" vaporized=""/>
    <tripinfo id="veh_77" depart="50.10" departLane="1to2_1" departPos="5.10" departSpeed="0.00" departDelay="50.10" arrival="89.70" arrivalLane="gneE7_0" arrivalPos="0.20" arrivalSpeed="14.51" duration="39.60" routeLength="506.78" waitingTime="0.00" waitingCount="0" stopTime="0.00" timeLoss="4.98" rerouteNo="0" devices="tripinfo_veh_77" vType="DEFAULT_VEHTYPE" speedFactor="1.05" vaporized=""/>
    <tripinfo id="veh_66" depart="42.50" departLane="1to2_3" departPos="5.10" departSpeed="0.00" departDelay="42.50" arrival="91.20" arrivalLane="gneE9_0" arrivalPos="0.10" arrivalSpeed="12.12" duration="48.70" routeLength="504.21" waitingTime="0.00" waitingCount="0" stopTime="0.00" timeLoss="7.49" rerouteNo="0" devices="tripinfo_veh_66" vType="DEFAULT_VEHTYPE" speedFactor="0.88" vaporized=""/>